# vtk DataFile Version 3.0
vtk output
ASCII
DATASET POLYDATA
POINTS 50 double
-13.9767 -26.9755 103.233 -13.9536 -27.2099 109.686 -13.9536 -27.2099 109.686 
-100.641 -34.8723 18.8427 -100.641 -34.8723 18.8427 -92.1544 -51.0324 -424.754 
-92.1544 -51.0324 -424.754 -90.9663 -32.7446 -785.387 -90.9663 -32.7446 -785.387 
-86.4617 96.4737 -882.594 -13.9536 -27.2099 109.686 76.8751 -32.1153 20.8499 
76.8751 -32.1153 20.8499 79.5954 -47.7292 -423.882 79.5954 -47.7292 -423.882 
79.8504 -35.1901 -786.327 79.8504 -35.1901 -786.327 76.3687 84.2986 -881.415 
-13.9536 -27.2099 109.686 -15.4227 -55.1134 191.38 -15.4227 -55.1134 191.38 
-13.8396 -77.7675 290.341 -13.8396 -77.7675 290.341 -10.0356 -113.202 400.606 
-10.0356 -113.202 400.606 -7.53862 -97.394 509.198 -7.53862 -97.394 509.198 
-10.4394 -49.7087 582.079 -10.4394 -49.7087 582.079 -192.964 -4.28939 590.112 
-192.964 -4.28939 590.112 -236.966 -62.5239 272.419 -236.966 -62.5239 272.419 
-253.585 -58.6546 37.4006 -10.4394 -49.7087 582.079 175.326 0.614275 570.61 
175.326 0.614275 570.61 198.667 -73.25 255.996 198.667 -73.25 255.996 
231.657 -65.1862 16.6721 -10.4394 -49.7087 582.079 -9.39834 -9.9036 680.421 
-9.39834 -9.9036 680.421 -9.70875 -24.5619 759.534 -9.70875 -24.5619 759.534 
-11.5757 12.5883 865.813 -253.585 -58.6546 37.4006 -264.273 -38.2885 -58.8037 
231.657 -65.1862 16.6721 232.552 -54.3348 -81.5438 
LINES 25 75
2 0 1 
2 2 3 
2 4 5 
2 6 7 
2 8 9 
2 10 11 
2 12 13 
2 14 15 
2 16 17 
2 18 19 
2 20 21 
2 22 23 
2 24 25 
2 26 27 
2 28 29 
2 30 31 
2 32 33 
2 34 35 
2 36 37 
2 38 39 
2 40 41 
2 42 43 
2 44 45 
2 46 47 
2 48 49 

CELL_DATA 25
FIELD FieldData 4
Transforms 12 25 double
1 0 0 0 1 0 0 0 1 
0 0 0 1 0 0 0 1 0 
0 0 1 0 0 0 1 0 0 
0 1 0 0 0 1 0 0 0 
1 0 0 0 1 0 0 0 1 
0 0 0 1 0 0 0 1 0 
0 0 1 0 0 0 1 0 0 
0 1 0 0 0 1 0 0 0 
1 0 0 0 1 0 0 0 1 
0 0 0 1 0 0 0 1 0 
0 0 1 0 0 0 1 0 0 
0 1 0 0 0 1 0 0 0 
1 0 0 0 1 0 0 0 1 
0 0 0 1 0 0 0 1 0 
0 0 1 0 0 0 1 0 0 
0 1 0 0 0 1 0 0 0 
1 0 0 0 1 0 0 0 1 
0 0 0 1 0 0 0 1 0 
0 0 1 0 0 0 1 0 0 
0 1 0 0 0 1 0 0 0 
1 0 0 0 1 0 0 0 1 
0 0 0 1 0 0 0 1 0 
0 0 1 0 0 0 1 0 0 
0 1 0 0 0 1 0 0 0 
1 0 0 0 1 0 0 0 1 
0 0 0 1 0 0 0 1 0 
0 0 1 0 0 0 1 0 0 
0 1 0 0 0 1 0 0 0 
1 0 0 0 1 0 0 0 1 
0 0 0 1 0 0 0 1 0 
0 0 1 0 0 0 1 0 0 
0 1 0 0 0 1 0 0 0 
1 0 0 0 1 0 0 0 1 
0 0 0 
Parenthood 1 25 vtkIdType
-1 0 1 2 3 0 5 6 7 
0 9 10 11 12 13 14 15 13 
17 18 13 20 21 16 19 
Names 1 25 string
Root
LeftHip
LeftFemur
LeftTibia
LeftFoot
RightHip
RightFemur
RightTibia
RightFoot
LowerLumbarVertebrae
UpperLumbarVertebrae
LowerThoracicVertebrae
MiddleThoracicVertebrae
UpperThoracicVertebrae
LeftShoulder
LeftHumerus
LeftForearm
RightShoulder
RightHumerus
RightForearm
LowerCervicalVertebrae
UpperCervicalVertebrae
Head
LeftHand
RightHand

RestToPoseRotation 4 25 double
1 0 0 0 1 0 0 0 1 
0 0 0 1 0 0 0 1 0 
0 0 1 0 0 0 1 0 0 
0 1 0 0 0 1 0 0 0 
1 0 0 0 1 0 0 0 1 
0 0 0 1 0 0 0 1 0 
0 0 1 0 0 0 1 0 0 
0 1 0 0 0 1 0 0 0 
1 0 0 0 1 0 0 0 1 
0 0 0 1 0 0 0 1 0 
0 0 1 0 0 0 1 0 0 
0 
