# vtk DataFile Version 3.0
vtk output
ASCII
DATASET POLYDATA
POINTS 42 double
-28.9999 -26.5107 279.004 -99.8076 -80.8065 -9.62028 -99.8076 -80.8065 -9.62028 
-17.0908 85.1418 -190.147 -17.0908 85.1418 -190.147 62.4876 121.848 -211.832 
62.4876 121.848 -211.832 83.9701 130.545 -238.818 83.9701 130.545 -238.818 
96.3825 136.47 -254.428 -17.0908 85.1418 -190.147 50.4922 146.774 -247.98 
50.4922 146.774 -247.98 81.4095 144.918 -276.479 81.4095 144.918 -276.479 
95.3463 140.243 -284.177 95.3463 140.243 -284.177 116.433 128.287 -298.969 
-17.0908 85.1418 -190.147 38.6253 135.404 -261.28 38.6253 135.404 -261.28 
76.7608 137.008 -293.462 76.7608 137.008 -293.462 104.015 127.964 -307.853 
104.015 127.964 -307.853 115.886 120.545 -312.668 -17.0908 85.1418 -190.147 
24.5054 124.763 -271.895 24.5054 124.763 -271.895 47.8293 129.301 -296.977 
47.8293 129.301 -296.977 82.1788 119.34 -315.827 82.1788 119.34 -315.827 
97.276 117.219 -324.627 -17.0908 85.1418 -190.147 14.7614 103.426 -274.942 
14.7614 103.426 -274.942 33.856 110.679 -304.35 33.856 110.679 -304.35 
46.2192 106.557 -314.044 46.2192 106.557 -314.044 61.5944 105.588 -325.457 

LINES 21 63
2 0 1 
2 2 3 
2 4 5 
2 6 7 
2 8 9 
2 10 11 
2 12 13 
2 14 15 
2 16 17 
2 18 19 
2 20 21 
2 22 23 
2 24 25 
2 26 27 
2 28 29 
2 30 31 
2 32 33 
2 34 35 
2 36 37 
2 38 39 
2 40 41 

CELL_DATA 21
FIELD FieldData 5
Transforms 12 21 double
1 0 0 0 1 0 0 0 1 
0 0 0 1 0 0 0 1 0 
0 0 1 0 0 0 1 0 0 
0 1 0 0 0 1 0 0 0 
1 0 0 0 1 0 0 0 1 
0 0 0 1 0 0 0 1 0 
0 0 1 0 0 0 1 0 0 
0 1 0 0 0 1 0 0 0 
1 0 0 0 1 0 0 0 1 
0 0 0 1 0 0 0 1 0 
0 0 1 0 0 0 1 0 0 
0 1 0 0 0 1 0 0 0 
1 0 0 0 1 0 0 0 1 
0 0 0 1 0 0 0 1 0 
0 0 1 0 0 0 1 0 0 
0 1 0 0 0 1 0 0 0 
1 0 0 0 1 0 0 0 1 
0 0 0 1 0 0 0 1 0 
0 0 1 0 0 0 1 0 0 
0 1 0 0 0 1 0 0 0 
1 0 0 0 1 0 0 0 1 
0 0 0 1 0 0 0 1 0 
0 0 1 0 0 0 1 0 0 
0 1 0 0 0 1 0 0 0 
1 0 0 0 1 0 0 0 1 
0 0 0 1 0 0 0 1 0 
0 0 1 0 0 0 1 0 0 
0 1 0 0 0 1 0 0 0 

EnvelopeRadiuses 1 21 double
10 10 10 10 10 10 10 10 10 
10 10 10 10 10 10 10 10 10 
10 10 10 
Parenthood 1 21 vtkIdType
-1 0 1 2 3 1 5 6 7 
1 9 10 11 1 13 14 15 1 
17 18 19 
Names 1 21 string
Humerus
Forearm
ThumbMetarcapal
ThumbProximalPhalange
ThumbDistalPhalange
IndexMetarcapal
IndexProximalPhalange
IndexMiddlePhalange
IndexDistalPhalange
MiddleMetarcapal
MiddleProximalPhalange
MiddleMiddlePhalange
MiddleDistalPhalange
RingMetarcapal
RingProximalPhalange
RingMiddlePhalange
RingDistalPhalange
SmallMetarcapal
SmallProximalPhalange
SmallMiddlePhalange
SmallDistalPhalange

RestToPoseRotation 4 21 double
1 0 0 0 1 0 0 0 1 
0 0 0 1 0 0 0 1 0 
0 0 1 0 0 0 1 0 0 
0 1 0 0 0 1 0 0 0 
1 0 0 0 1 0 0 0 1 
0 0 0 1 0 0 0 1 0 
0 0 1 0 0 0 1 0 0 
0 1 0 0 0 1 0 0 0 
1 0 0 0 1 0 0 0 1 
0 0 0 
