# vtk DataFile Version 3.0
vtk output
ASCII
DATASET POLYDATA
POINTS 42 double
-13.977 -26.976 103.233 -13.954 -27.21 109.686 -13.954 -27.21 109.686 
-13.84 -77.767 290.341 -13.84 -77.767 290.341 -10.439 -49.709 582.079 
-10.439 -49.709 582.079 -9.709 -24.562 759.534 -9.709 -24.562 759.534 
-11.576 12.588 865.812 -10.439 -49.709 582.079 -192.964 -4.289 590.112 
-192.964 -4.289 590.112 -236.966 -62.524 272.419 -236.966 -62.524 272.419 
-253.585 -58.655 37.401 -253.585 -58.655 37.401 -264.273 -38.288 -58.804 
-10.439 -49.709 582.079 175.326 0.614 571.61 175.326 0.614 571.61 
198.667 -73.25 255.996 198.667 -73.25 255.996 231.657 -65.186 16.672 
231.657 -65.186 16.672 232.552 -54.335 -81.544 -13.954 -27.21 109.686 
-100.641 -34.872 18.843 -100.641 -34.872 18.843 -92.154 -51.032 -424.754 
-92.154 -51.032 -424.754 -90.966 -32.745 -785.387 -90.966 -32.745 -785.387 
-86.462 96.474 -882.594 -13.954 -27.21 109.686 76.875 -32.115 20.85 
76.875 -32.115 20.85 79.595 -47.729 -432.882 79.595 -47.729 -432.882 
79.85 -35.19 -786.327 79.85 -35.19 -786.327 76.369 84.299 -881.415 

LINES 21 63
2 0 1 
2 2 3 
2 4 5 
2 6 7 
2 8 9 
2 10 11 
2 12 13 
2 14 15 
2 16 17 
2 18 19 
2 20 21 
2 22 23 
2 24 25 
2 26 27 
2 28 29 
2 30 31 
2 32 33 
2 34 35 
2 36 37 
2 38 39 
2 40 41 

CELL_DATA 21
FIELD FieldData 5
Transforms 12 21 double
1 0 0 0 1 0 0 0 1 
0 0 0 1 0 0 0 1 0 
0 0 1 0 0 0 1 -1.99551e-010 -1.48664e-018 
1.99551e-010 1 1.48998e-008 -1.48664e-018 -1.48998e-008 1 0 0 0 
1 0 0 0 1 0 0 0 1 
0 0 0 1 0 0 0 1 0 
0 0 1 0 0 0 1 -1.48721e-008 6.91189e-018 
1.48721e-008 1 -9.29509e-010 6.91189e-018 9.29509e-010 1 0 0 0 
1 3.20128e-009 -4.09929e-017 -3.20128e-009 1 -2.56103e-008 -4.09929e-017 2.56103e-008 1 
0 0 0 1 0 0 0 1 0 
0 0 1 0 0 0 1 -2.95257e-009 1.45892e-008 
2.95257e-009 1 -6.94723e-010 -1.45892e-008 6.94723e-010 1 0 0 0 
1 -1.44496e-008 3.6124e-009 1.44496e-008 1 4.5155e-010 -3.6124e-009 -4.5155e-010 1 
0 0 0 1 0 0 0 1 0 
0 0 1 0 0 0 1 5.01808e-010 -1.48927e-008 
-5.01808e-010 1 3.73664e-018 1.48927e-008 3.73664e-018 1 0 0 0 
1 0 0 0 1 0 0 0 1 
0 0 0 1 0 0 0 1 0 
0 0 1 0 0 0 1 0 0 
0 1 0 0 0 1 0 0 0 
1 0 0 0 1 0 0 0 1 
0 0 0 1 0 0 0 1 0 
0 0 1 0 0 0 1 0 0 
0 1 0 0 0 1 0 0 0 
1 0 0 0 1 0 0 0 1 
0 0 0 1 0 0 0 1 0 
0 0 1 0 0 0 1 0 0 
0 1 0 0 0 1 0 0 0 

EnvelopeRadiuses 1 21 double
10 10 10 10 10 10 10 10 10 
10 10 10 10 10 10 10 10 10 
10 10 10 
Parenthood 1 21 vtkIdType
-1 0 1 2 3 2 5 6 7 
2 9 10 11 0 13 14 15 0 
17 18 19 
Names 1 21 string
hip
abdomen
chest
neck
head
lCollar
lShldr
lForeArm
lHand
rCollar
rShldr
rForeArm
rHand
lButtock
lThigh
lShin
lFoot
rButtock
rThigh
rShin
rFoot

RestToPoseRotation 4 21 double
1 0 0 0 1 0 8.13152e-020 0 1 
0 3.25261e-019 0 1 0 2.57498e-019 0 1 0 
0 0 1 0 2.77556e-017 0 1 0 0 
-2.77556e-017 1 0 1.73472e-018 0 1 0 1.30104e-018 0 
1 0 2.77556e-017 0 1 0 -2.77556e-017 -2.77556e-017 1 
0 1.30104e-018 0 1 0 -2.60209e-018 0 1 0 
0 6.93889e-018 1 2.77556e-017 -3.46945e-017 0 1 0 -1.0842e-019 
0 1 0 8.67362e-019 0 1 0 0 6.93889e-018 
1 0 7.63278e-017 0 1 -6.93889e-018 1.35525e-020 0 1 
0 1.73472e-018 0 
