# vtk DataFile Version 3.0
vtk output
ASCII
DATASET POLYDATA
POINTS 48 double
-12.4535 -48.461 131.023 -12.3516 -53.8732 136.294 -12.3516 -53.8732 136.294 
-62.1882 -42.5859 37.5649 -62.1882 -42.5859 37.5649 -96.2295 -11.1137 -348.34 
-96.2295 -11.1137 -348.34 -100.495 -37.2153 -656.093 -100.495 -37.2153 -656.093 
-75.304 66.3939 -730.947 -12.3516 -53.8732 136.294 47.3116 -18.0629 45.3398 
47.3116 -18.0629 45.3398 90.0522 -5.12701 -341.747 90.0522 -5.12701 -341.747 
99.3737 -29.8425 -649.839 99.3737 -29.8425 -649.839 100.547 80.8063 -717.73 
-12.3516 -53.8732 136.294 -17.2346 -63.2106 196.949 -17.2346 -63.2106 196.949 
-18.8921 -82.3181 289.828 -18.8921 -82.3181 289.828 -25.246 -88.3059 406.396 
-25.246 -88.3059 406.396 -28.1665 -64.6096 482.052 -28.1665 -64.6096 482.052 
114.529 -51.91 475.083 114.529 -51.91 475.083 158.413 -45.2968 223.321 
158.413 -45.2968 223.321 194.428 -37.4298 21.3152 194.428 -37.4298 21.3152 
189.217 -56.338 -76.7347 -28.1665 -64.6096 482.052 -165.801 -71.2063 465.429 
-165.801 -71.2063 465.429 -191.998 -57.8465 208.496 -191.998 -57.8465 208.496 
-197.761 -44.5866 6.81104 -197.761 -44.5866 6.81104 -191.037 -51.4963 -101.13 
-28.1665 -64.6096 482.052 -26.354 -35.5461 540.217 -26.354 -35.5461 540.217 
-28.5254 -19.3129 601.852 -28.5254 -19.3129 601.852 -31.0157 -9.44703 717.155 

LINES 24 72
2 0 1 
2 2 3 
2 4 5 
2 6 7 
2 8 9 
2 10 11 
2 12 13 
2 14 15 
2 16 17 
2 18 19 
2 20 21 
2 22 23 
2 24 25 
2 26 27 
2 28 29 
2 30 31 
2 32 33 
2 34 35 
2 36 37 
2 38 39 
2 40 41 
2 42 43 
2 44 45 
2 46 47 

CELL_DATA 24
FIELD FieldData 5
Transforms 12 24 double
0.0017858 0.0948059 -0.0923351 -0.0948059 0.0653455 0.0652605 0.0923351 0.0652605 0.0687926 
12.4535 48.461 -131.023 -0.00403255 -0.000913314 0.00798874 0.000913314 0.00882722 0.0014702 
-0.00798874 0.0014702 -0.00386447 12.3516 53.8732 -136.294 -0.000225332 -0.000208326 0.00255445 
0.000208326 0.00255433 0.000226693 -0.00255445 0.000226693 -0.000206844 62.1882 42.5859 -37.5649 
-4.47114e-005 0.000273569 0.00322554 -0.000273569 0.00321399 -0.000276381 -0.00322554 -0.000276381 -2.12706e-005 
96.2295 11.1137 348.34 0.00148424 -0.00610447 0.0044103 0.00610447 0.00360767 0.00293912 
-0.0044103 0.00293912 0.00555239 100.495 37.2153 656.093 0.00454931 -0.00273052 0.00693526 
0.00273052 0.00817075 0.00142582 -0.00693526 0.00142582 0.00511068 12.3516 53.8732 -136.294 
0.000281502 -8.51998e-005 0.00254947 8.51998e-005 0.00256383 7.62722e-005 -0.00254947 7.62722e-005 0.000284051 
-47.3116 18.0629 -45.3398 9.74865e-005 0.00025848 0.0032221 -0.00025848 0.00321386 -0.000249999 
-0.0032221 -0.000249999 0.000117542 -90.0522 5.12701 341.747 6.96385e-005 -0.00656525 0.00402824 
0.00656525 0.00215735 0.00340256 -0.00402824 0.00340256 0.00561515 -99.3737 29.8425 649.839 
-0.0012884 0.0024637 -0.0160038 -0.0024637 0.0158377 0.00263646 0.0160038 0.00263646 -0.000882534 
12.3516 53.8732 -136.294 -0.000184277 0.00212439 -0.0103264 -0.00212439 0.0101086 0.0021175 
0.0103264 0.0021175 0.000251346 17.2346 63.2106 -196.949 -0.000464997 0.000438205 -0.00853079 
-0.000438205 0.00853095 0.000462098 0.00853079 0.000462098 -0.00044126 18.8921 82.3181 -289.828 
-0.00046403 -0.00376501 -0.0120206 0.00376501 0.0114374 -0.00372769 0.0120206 -0.00372769 0.000703529 
25.246 88.3059 -406.396 0.00693643 -0.000617328 0.000338768 0.000617328 0.00694468 1.50362e-005 
-0.000338768 1.50362e-005 0.00696383 28.1665 64.6096 -482.052 0.000671489 -0.000101191 0.00385231 
0.000101191 0.00390947 8.50539e-005 -0.00385231 8.50539e-005 0.000673723 -114.529 51.91 -475.083 
0.000854137 -0.000186574 0.0047908 0.000186574 0.00486384 0.000156155 -0.0047908 0.000156155 0.000860219 
-158.413 45.2968 -223.321 -0.000521206 0.00189111 0.00980651 -0.00189111 0.00962351 -0.00195633 
-0.00980651 -0.00195633 -0.000143945 -194.428 37.4298 -21.3152 -0.00714498 0.000342453 0.000862955 
-0.000342453 0.00525267 -0.00491985 -0.000862955 -0.00491985 -0.0051926 28.1665 64.6096 -482.052 
-0.000391707 -0.000199759 0.00384174 0.000199759 0.00385533 0.000220834 -0.00384174 0.000220834 -0.000380224 
165.801 71.2063 -465.429 -0.000140939 -0.000324316 0.00493289 0.000324316 0.00492366 0.000332975 
-0.00493289 0.000332975 -0.000119047 191.998 57.8465 -208.496 0.000572522 0.000588348 0.009191 
-0.000588348 0.00919227 -0.00055178 -0.009191 -0.00055178 0.000607843 197.761 44.5866 -6.81104 
0.000428379 -0.00686902 -0.0137469 0.00686902 0.0123876 -0.00597574 0.0137469 -0.00597574 0.00341431 
28.1665 64.6096 -482.052 -0.000533882 -0.00399133 -0.0151545 0.00399133 0.0146286 -0.00399343 
0.0151545 -0.00399343 0.000517893 26.354 35.5461 -540.217 -0.000185866 -0.000736351 -0.00860577 
0.000736351 0.00857508 -0.000749628 0.00860577 -0.000749628 -0.000121724 28.5254 19.3129 -601.852 

EnvelopeRadiuses 1 24 double
1.8889 27.7923 97.1699 77.2218 32.5698 28.6299 97.4136 77.3056 32.4555 
30.7815 47.4193 58.4475 39.6668 71.7146 127.822 102.671 49.9961 69.3958 
129.305 101.101 54.1853 32.5234 31.887 57.8756 
Parenthood 1 24 vtkIdType
-1 0 1 2 3 0 5 6 7 
0 9 10 11 12 13 14 15 12 
17 18 19 12 21 22 
Names 1 24 string
Root
LeftHip
LeftFemur
LeftTibia
LeftFoot
RightHip
RightFemur
RightTibia
RightFoot
LowerLumbarVertebrae
UpperLumbarVertebrae
LowerThoracicVertebrae
UpperThoracicVertebrae
RightShoulder
RightHumerus
RightForearm
RightHand
LeftShoulder
LeftHumerus
LeftForearm
LeftHand
LowerCervicalVertebrae
UpperCervicalVertebrae
Head

RestToPoseRotation 4 24 double
1 0 0 0 1 0 0 0 1 
0 0 0 1 0 0 0 1 0 
0 0 1 0 0 0 1 0 0 
0 1 0 0 0 1 0 0 0 
1 0 0 0 1 0 0 0 1 
0 0 0 1 0 0 0 1 0 
0 0 1 0 0 0 1 0 0 
0 1 0 0 0 1 0 0 0 
1 0 0 0 1 0 0 0 1 
0 0 0 1 0 0 0 1 0 
0 0 1 0 0 0 
