# vtk DataFile Version 3.0
vtk output
ASCII
DATASET POLYDATA
POINTS 22 double
0 0 0 0 0 10 0 0 10 
-25 0 -100 -25 0 -100 -45 0 -100 
0 0 10 25 0 -100 25 0 -100 
45 0 -100 0 0 10 0 0 100 
0 0 100 -80 0 100 -80 0 100 
-100 0 100 0 0 100 80 0 100 
80 0 100 100 0 100 0 0 100 
0 0 150 
LINES 11 33
2 0 1 
2 2 3 
2 4 5 
2 6 7 
2 8 9 
2 10 11 
2 12 13 
2 14 15 
2 16 17 
2 18 19 
2 20 21 

CELL_DATA 11
FIELD FieldData 4
Transforms 12 11 double
1 0 0 0 1 0 0 0 1 
0 0 0 0.581901 -0.326624 -0.744787 -0.681301 0.304307 -0.665752 
0.444095 0.894826 -0.0454531 0 0 0 0.0072028 0.0102553 -0.999921 
-0.0102553 0.999896 0.0101811 0.999921 0.0101811 0.00730722 -38.3979 -90.2653 133.62 
0.749353 -0.2495 0.613368 -0.642927 -0.0524516 0.764129 -0.158478 -0.966953 -0.199715 
0 0 0 -0.038493 -0.106569 0.99356 0.106569 0.988188 0.110121 
-0.99356 0.110121 -0.0266815 11.1664 100.127 147.303 1 0 0 
0 1 0 0 0 1 0 0 0 
0.454401 0.194534 -0.869296 -0.194534 0.97398 0.116273 0.869296 0.116273 0.480421 
0 0 0 0.454401 0.194534 -0.869296 -0.194534 0.97398 0.116273 
0.869296 0.116273 0.480421 43.6479 -15.5628 69.5437 0.427162 0.360346 0.829266 
-0.360346 0.909016 -0.209383 -0.829266 -0.209383 0.518147 0 0 0 
0.427162 0.360346 0.829266 -0.360346 0.909016 -0.209383 -0.829266 -0.209383 0.518147 
-45.827 28.8277 66.3413 1 0 0 0 1 0 
0 0 1 0 0 0 
Parenthood 1 11 vtkIdType
-1 0 1 0 3 0 5 6 5 
8 5 
Names 1 11 string
Bone
Bone_1
Bone_2
Bone_3
Bone_4
Bone_5
Bone_6
Bone_7
Bone_8
Bone_9
Bone_10

RestToPoseRotation 4 11 double
1 0 0 0 -0.631365 0.324005 -0.328092 0.623502 1 
0 0 0 0.544959 0.428688 0.382578 0.610639 1 0 
0 0 1 0 0 0 0.846757 -0.101009 0.173632 
-0.492596 1 0 0 0 0.829212 0.16121 0.303041 0.441118 
1 0 0 0 1 0 0 0 
